

    24 atoms
    70 angles
    36 bonds

     2 atom types
     3 angle types
     1 bond types


        0.0    13.46410 xlo xhi
        0.0    16 ylo yhi
        0.0    20.1368 zlo zhi


    Masses

        1    95.9400
        2    32.0660

    Atoms

1 2 0.866025 0.5 1 1 1
2 2 0.866025 0.5 2 1 1
3 2 0 2 1 1 1
4 2 0 2 2 1 1
5 1 0 1 1.5 1 1
6 1 0.866025 2.5 1.5 1 1
7 2 2.59808 0.5 1 1 1
8 2 2.59808 0.5 2 1 1
9 2 1.73205 2 1 1 1
10 2 1.73205 2 2 1 1
11 1 1.73205 1 1.5 1 1
12 1 2.59808 2.5 1.5 1 1
13 2 0.866025 3.5 1 1 1
14 2 0.866025 3.5 2 1 1
15 2 0 5 1 1 1
16 2 0 5 2 1 1
17 1 0 4 1.5 1 1
18 1 0.866025 5.5 1.5 1 1
19 2 2.59808 3.5 1 1 1
20 2 2.59808 3.5 2 1 1
21 2 1.73205 5 1 1 1
22 2 1.73205 5 2 1 1
23 1 1.73205 4 1.5 1 1
24 1 2.59808 5.5 1.5 1 1


    Bonds

1 1 1 5 #CellIn
2 1 2 5 #CellIn
3 1 3 5 #CellIn
4 1 4 5 #CellIn
5 1 3 6 #CellIn
6 1 4 6 #CellIn
7 1 7 11 #CellIn
8 1 8 11 #CellIn
9 1 9 11 #CellIn
10 1 10 11 #CellIn
11 1 9 12 #CellIn
12 1 10 12 #CellIn
13 1 13 17 #CellIn
14 1 14 17 #CellIn
15 1 15 17 #CellIn
16 1 16 17 #CellIn
17 1 15 18 #CellIn
18 1 16 18 #CellIn
19 1 19 23 #CellIn
20 1 20 23 #CellIn
21 1 21 23 #CellIn
22 1 22 23 #CellIn
23 1 21 24 #CellIn
24 1 22 24 #CellIn
25 1 1 11 #CellOutx
26 1 2 11 #CellOutx
27 1 6 9 #CellOutx
28 1 6 10 #CellOutx
29 1 13 23 #CellOutx
30 1 14 23 #CellOutx
31 1 18 21 #CellOutx
32 1 18 22 #CellOutx
33 1 6 13 #CellOuty
34 1 6 14 #CellOuty
35 1 12 19 #CellOuty
36 1 12 20 #CellOuty


    Angles

1 1 1 5 2 #A1_Theta
2 1 3 5 4 #A1_Theta
3 1 3 6 4 #A1_Theta
4 2 1 5 3 #A1_phi
5 2 2 5 4 #A1_phi
6 3 5 3 6 #A1_psi
7 3 5 4 6 #A1_psi
8 1 7 11 8 #A1_Theta
9 1 9 11 10 #A1_Theta
10 1 9 12 10 #A1_Theta
11 2 7 11 9 #A1_phi
12 2 8 11 10 #A1_phi
13 3 11 9 12 #A1_psi
14 3 11 10 12 #A1_psi
15 1 13 17 14 #A1_Theta
16 1 15 17 16 #A1_Theta
17 1 15 18 16 #A1_Theta
18 2 13 17 15 #A1_phi
19 2 14 17 16 #A1_phi
20 3 17 15 18 #A1_psi
21 3 17 16 18 #A1_psi
22 1 19 23 20 #A1_Theta
23 1 21 23 22 #A1_Theta
24 1 21 24 22 #A1_Theta
25 2 19 23 21 #A1_phi
26 2 20 23 22 #A1_phi
27 3 23 21 24 #A1_psi
28 3 23 22 24 #A1_psi
29 1 1 11 2 #A2_theta
30 1 9 6 10 #A2_theta
31 2 1 11 7 #A2_phi
32 2 2 11 8 #A2_phi
33 2 1 11 9 #A2_phi
34 2 2 11 10 #A2_phi
35 2 3 6 9 #A2_phi
36 2 4 6 10 #A2_phi
37 3 5 1 11 #A2_psi
38 3 5 2 12 #A2_psi
39 3 3 6 9 #A2_psi
40 3 4 6 10 #A2_psi
41 3 6 9 12 #A2_psi
42 3 6 10 12 #A2_psi
43 1 13 23 14 #A2_theta
44 1 21 18 22 #A2_theta
45 2 13 23 19 #A2_phi
46 2 14 23 20 #A2_phi
47 2 13 23 21 #A2_phi
48 2 14 23 22 #A2_phi
49 2 15 18 21 #A2_phi
50 2 16 18 22 #A2_phi
51 3 17 13 23 #A2_psi
52 3 17 14 24 #A2_psi
53 3 15 18 21 #A2_psi
54 3 16 18 22 #A2_psi
55 3 18 21 24 #A2_psi
56 3 18 22 24 #A2_psi
57 1 13 6 14 #B1_Theta
58 2 3 6 13 #B1_phi
59 2 4 6 14 #B1_phi
60 3 6 13 17 #B1_psi
61 3 6 14 17 #B1_psi
62 1 19 12 20 #B1_Theta
63 2 9 12 19 #B1_phi
64 2 10 12 20 #B1_phi
65 3 12 19 23 #B1_psi
66 3 12 20 23 #B1_psi
67 2 9 6 13 #b2_phi
68 2 10 6 14 #b2_phi
69 3 6 13 23 #b2_psi
70 3 6 14 23 #b2_psi
